<?xml version="1.0" encoding="UTF-8"?>

<!-- generated on 2024-06-03 16:08:11 by Eclipse SUMO sumo Version 1.20.0
<configuration xmlns:xsi="http://www.w3.org/2001/XMLSchema-instance" xsi:noNamespaceSchemaLocation="http://sumo.dlr.de/xsd/sumoConfiguration.xsd">

    <input>
        <net-file value="/usr/share/sumo/tools/2024-06-03-16-07-59/osm.net.xml.gz"/>
        <route-files value="/usr/share/sumo/tools/2024-06-03-16-07-59/trips.trips.xml"/>
        <additional-files value="/usr/share/sumo/tools/2024-06-03-16-07-59/osm_stops.add.xml"/>
    </input>

    <output>
        <vehroute-output value="/usr/share/sumo/tools/2024-06-03-16-07-59/vehroutes.xml"/>
        <stop-output value="/usr/share/sumo/tools/2024-06-03-16-07-59/stopinfos.xml"/>
    </output>

    <time>
        <begin value="0.0"/>
    </time>

    <processing>
        <ignore-route-errors value="true"/>
    </processing>

    <routing>
        <device.rerouting.adaptation-interval value="0"/>
    </routing>

    <report>
        <aggregate-warnings value="5"/>
        <error-log value="/usr/share/sumo/tools/2024-06-03-16-07-59/trips.trips.xml.errorlog"/>
        <no-step-log value="true"/>
    </report>

</configuration>
-->

<routes xmlns:xsi="http://www.w3.org/2001/XMLSchema-instance" xsi:noNamespaceSchemaLocation="http://sumo.dlr.de/xsd/routes_file.xsd">
    <vehicle id="32_bus_LM:2" type="pt_bus" depart="165.00" departLane="0" arrival="201.00">
        <route edges="279676296#1"/>
        <stop busStop="2055577697" duration="30.00"/>
    </vehicle>

    <vehicle id="33_bus_LM:3" type="pt_bus" depart="201.00" departLane="0" arrival="238.00">
        <route edges="279676296#1"/>
        <stop busStop="2055577697" duration="30.00"/>
    </vehicle>

    <vehicle id="4_bus_103:0" type="pt_bus" depart="19.00" departLane="1" arrival="339.00">
        <route edges="107263469#3 279669731#1 279669731#2 186672434#1 186672434#2 186672434#3 98144349#0 98144349#1 6011099#1 6011099#2 6011099#3 132521459#1 98102303#0 98102303#1 98102303#2 72833951#1 72833951#2 72833951#3 72833951#7 72833951#8 978418116#1 978418116#2 978418116#3 98144266#2 98144266#3 98144266#4 126997189 1017233453#1 71694383#0 71694383#1 107263471 725779838#0 542345403#1 542345403#3 542345403#4 542345404#0 542345402#1 542345401#0"/>
        <stop busStop="6152778520" duration="30.00"/>
    </vehicle>

    <vehicle id="2_bus_51:0" type="pt_bus" depart="15.00" departLane="0" arrival="370.00">
        <route edges="107263469#3 279669731#1 279669731#2 186672434#1 186672434#2 186672434#3 98144349#0 98144349#1 6011099#1 6011099#2 6011099#3 132521459#1 98102303#0 98102303#1 98102303#2 72833951#1 72833951#2 72833951#3 72833951#7 72833951#8 978418116#1 978418116#2 978418116#3 98144266#2 98144266#3 98144266#4 126997189 1017233453#1 71694383#0 71694383#1 107263471 725779838#0 542345403#1 542345403#3 542345403#4 542345404#0 542345402#1 542345401#0"/>
        <stop busStop="6152778520" duration="30.00"/>
    </vehicle>

    <vehicle id="0_subway_M:0" type="pt_subway" depart="3.00" departLane="0" arrival="395.00">
        <route edges="834843616 -834843619#0 834843604"/>
        <stop busStop="844091659" duration="30.00"/>
        <stop busStop="844091805" duration="30.00"/>
        <stop busStop="7785026032" duration="30.00"/>
        <stop busStop="-844091769" duration="30.00"/>
        <stop busStop="844091819" duration="30.00"/>
    </vehicle>

    <vehicle id="26_bus_GR:0" type="pt_bus" depart="139.00" departLane="0" arrival="419.00">
        <route edges="107263469#3 279669731#1 279669731#2 186672434#1 186672434#2 186672434#3 98144349#0 98144349#1 6011099#1 6011099#2 6011099#3 132521459#1 98102303#0 98102303#1 98102303#2 72833951#1 72833951#2 72833951#3 72833951#7 72833951#8 978418116#1 978418116#2 978418116#3 98144266#2 98144266#3 98144266#4 126997189 1017233453#1 71694383#0 71694383#1 107263471 725779838#0 542345403#1 542345403#3 542345403#4 542345404#0 542345402#1 542345401#0"/>
        <stop busStop="6152778520" duration="30.00"/>
    </vehicle>

    <vehicle id="67_bus_75:0" type="pt_bus" depart="393.00" departLane="0" arrival="436.00">
        <route edges="192254092"/>
        <stop busStop="2028132781" duration="30.00"/>
    </vehicle>

    <vehicle id="49_bus_53:2" type="pt_bus" depart="435.00" departLane="0" arrival="472.00">
        <route edges="279676296#1"/>
        <stop busStop="2055577697" duration="30.00"/>
    </vehicle>

    <vehicle id="71_bus_76:0" type="pt_bus" depart="422.00" departLane="0" arrival="473.00">
        <route edges="116534593#1"/>
        <stop busStop="49484584" duration="30.00"/>
    </vehicle>

    <vehicle id="27_bus_GR:1" type="pt_bus" depart="147.00" departLane="0" arrival="486.00">
        <route edges="1262841371#0 1262841371#1 1262841371#2 189310752#0 189310752#1 189310752#4 189310752#5 189310752#6 195640796#1 195640796#2 132521505 6003270#0 6003270#1 6003270#2 6003270#4 6003270#5 6003270#6 6003270#7 6003270#8 6003270#9 6003270#13 6003270#15 26312911#1 173867943#1 173867943#2 424998858#1 935445891 935445892#0 606386293#1 866616168 547727934#1 547727934#2 501503721#1 948928818#0 192572990#1 192572990#2 424998857#1 236056988#0 107263469#1 107263469#2 107263469#3"/>
        <stop busStop="1990938847" duration="30.00"/>
    </vehicle>

    <vehicle id="47_bus_53:0" type="pt_bus" depart="363.00" departLane="0" arrival="488.00">
        <route edges="279676296#1 195059446#1 335286762#0 335286762#2 72832547 130599653 197613669#0 197613669#1 949167932#0 5999394#0 5999394#1 5999394#2 98144290#0 98144290#1 98144290#2 548197600#1"/>
        <stop busStop="2055577697" duration="30.00"/>
    </vehicle>

    <vehicle id="48_bus_53:1" type="pt_bus" depart="399.00" departLane="0" arrival="493.00">
        <route edges="279676296#1 195059446#1 335286762#0 335286762#2 72832547 130599653 197613669#0 197613669#1 949167932#0 5999394#0 5999394#1 5999394#2 98144290#0 98144290#1 98144290#2 548197600#1"/>
        <stop busStop="2055577697" duration="30.00"/>
    </vehicle>

    <vehicle id="50_bus_53:3" type="pt_bus" depart="472.00" departLane="0" arrival="509.00">
        <route edges="279676296#1"/>
        <stop busStop="2055577697" duration="30.00"/>
    </vehicle>

    <vehicle id="69_bus_75:2" type="pt_bus" depart="412.00" departLane="0" arrival="513.00">
        <route edges="192254092"/>
        <stop busStop="2028132781" duration="30.00"/>
    </vehicle>

    <vehicle id="65_bus_77:0" type="pt_bus" depart="388.00" departLane="0" arrival="524.00">
        <route edges="502201044#2 502201041#1 502201040#0 502201040#1 949420314#0 949420314#1"/>
        <stop busStop="4927577794" duration="30.00"/>
    </vehicle>

    <vehicle id="76_bus_80:1" type="pt_bus" depart="475.00" departLane="0" arrival="529.00">
        <route edges="116534593#1"/>
        <stop busStop="49484584" duration="30.00"/>
    </vehicle>

    <vehicle id="66_bus_77:1" type="pt_bus" depart="389.00" departLane="2" arrival="549.00">
        <route edges="6010825 498401210#1 502201044#0 502201044#2"/>
        <stop busStop="4927577794" duration="30.00"/>
    </vehicle>

    <vehicle id="23_bus_GD:0" type="pt_bus" depart="133.00" departLane="1" arrival="555.00">
        <route edges="335304154#0 335304154#5 335304154#6 335304154#9 696275611 98289467#1 425004671#1 425004667 425004668#1 193615078#0 193615078#1 193615078#2 187354119#0 98289669#1 98289669#2 98289447#1 98289447#2 98289575#0 98289575#1 6007715#1 6007715#2 6007715#5 6007715#8 6007715#9 6007715#11 6007715#14 192573104#9 192573104#12 192573104#15 192573104#18 192573104#19 124814574#1 124814574#2 124814574#3 -450298548#1 -450298548#0 6003340 424990630 202365906 500861988 450298544 500861986 216240439 450298522 450298533 500861984 425141215 450298528 450298536 450298535 500861983 943903755"/>
        <stop busStop="6133941589" duration="30.00"/>
    </vehicle>

    <vehicle id="13_bus_RD:0" type="pt_bus" depart="65.00" departLane="0" arrival="556.00">
        <route edges="-111081881#8 -111081881#7 -111081881#4 -111081881#3 -111081881#2 -111081881#1 948338667#1 72832606#0 72832606#1 72832606#2 72832606#3 72832606#4 72832606#5 72832606#6 424999429#1 424999429#2 208171397#1 208171397#2 57046869 437369980#1 437369980#2 437369980#3 437369980#5 6005221#1 6005221#2 132521505 26312868#0 26312868#1 1120563265#0 6021604#1 6021604#2 547938510#1 547938518#1 98117557#1 98117557#2 98117557#3 98117557#4 98117549#3 98117549#4 580849360 975996345#0 192466986#1 192466986#2 542149897#0 542149897#1 6023719#1 6023719#2 198167865#1 944178727#0 944178727#1 198167866#0 198167866#1 198167866#2 198167866#3 543589118#0 543589118#1 195640808#0 195640808#1 765317699#1 606386295#0 606386295#1 195640803 425002433#1 195640801 192254087#0 192254087#1 943790763#0 188783439#0 188783439#1 188783439#2"/>
        <stop busStop="-6125725579" duration="30.00"/>
    </vehicle>

    <vehicle id="15_bus_RD:2" type="pt_bus" depart="98.00" departLane="0" arrival="560.00">
        <route edges="-111081881#8 -111081881#7 -111081881#4 -111081881#3 -111081881#2 -111081881#1 948338667#1 72832606#0 72832606#1 72832606#2 72832606#3 72832606#4 72832606#5 72832606#6 424999429#1 424999429#2 208171397#1 208171397#2 57046869 437369980#1 437369980#2 437369980#3 437369980#5 6005221#1 6005221#2 132521505 26312868#0 26312868#1 1120563265#0 6021604#1 6021604#2 547938510#1 547938518#1 98117557#1 98117557#2 98117557#3 98117557#4 98117549#3 98117549#4 580849360 975996345#0 192466986#1 192466986#2 542149897#0 542149897#1 6023719#1 6023719#2 198167865#1 944178727#0 944178727#1 198167866#0 198167866#1 198167866#2 198167866#3 543589118#0 543589118#1 195640808#0 195640808#1 765317699#1 606386295#0 606386295#1 195640803 425002433#1 195640801 192254087#0 192254087#1 943790763#0 188783439#0 188783439#1 188783439#2"/>
        <stop busStop="-6125725579" duration="30.00"/>
    </vehicle>

    <vehicle id="5_light_rail_LR:1" type="pt_light_rail" depart="27.00" departLane="0" arrival="576.00">
        <route edges="71214999#4 201855693#1 201855693#2 201855693#3 201855693#4 201855693#5 201855693#6 201855693#9 201855693#10 201855693#11 201855693#13 201855693#14 201855693#17 201855693#18 201855693#21 201855693#22 201855693#25 201855693#26 201855693#27 201855693#29 201855693#31 201855693#32 201855693#33 201855693#34 201855693#35 201855693#36 201855693#38 201855693#39 201855693#40 201855693#41 201855693#42 201855693#43 201855693#44 201855693#45 201855693#47 201855693#51"/>
        <stop busStop="845911023" duration="30.00"/>
        <stop busStop="845911431" duration="30.00"/>
        <stop busStop="845911382" duration="30.00"/>
        <stop busStop="845371928" duration="30.00"/>
        <stop busStop="845372077" duration="30.00"/>
        <stop busStop="845371957" duration="30.00"/>
        <stop busStop="844812026" duration="30.00"/>
    </vehicle>

    <vehicle id="88_bus_63:1" type="pt_bus" depart="561.00" departLane="0" arrival="612.00">
        <route edges="107263469#3"/>
        <stop busStop="1990938847" duration="30.00"/>
    </vehicle>

    <vehicle id="46_bus_95:0" type="pt_bus" depart="253.00" departLane="0" arrival="644.00">
        <route edges="236056988#0 107263469#1 107263469#2 107263469#3 279669731#1 279669731#2 186672434#1 186672434#2 186672434#3 98144349#0 98144349#1 6011099#1 6011099#2 6011099#3 132521459#1 98102303#0 98102303#1 98102303#2 72833951#1 72833951#2 72833951#3 72833951#7 72833951#8 978418116#1 978418116#2 978418116#3 98144266#2 98144266#3 98144266#4 126997189 1017233453#1 71694383#0 71694383#1 107263471 725779838#0 542345403#1 542345403#3 542345403#4 542345404#0 542345402#1 542345401#0"/>
        <stop busStop="6152778520" duration="30.00"/>
    </vehicle>

    <vehicle id="57_bus_67:0" type="pt_bus" depart="353.00" departLane="0" arrival="648.00">
        <route edges="-201637236#0 6006381#1 192463113#1 192463113#2 98289551#1 98106800#1 424998855#1 98289628#1 98166085 -98106788#1 -116534597#0 111081883#1 98289643#1 98289643#2 116534593#1"/>
        <stop busStop="4485533501" duration="30.00"/>
        <stop busStop="49484584" duration="30.00"/>
    </vehicle>

    <vehicle id="74_bus_78:1" type="pt_bus" depart="441.00" departLane="0" arrival="648.00">
        <route edges="-127009732#1 6019500#0 6019500#1 6019500#2 6019500#3 6019500#4 6019500#5 6019500#6 6019500#7 6019500#8 6019500#9 6019500#10 6019500#11 6019500#12 6019500#15 6019500#17 6019500#18 498401210#1 502201044#0 502201044#2"/>
        <stop busStop="4927577794" duration="30.00"/>
    </vehicle>

    <vehicle id="1_light_rail_LR:0" type="pt_light_rail" depart="15.00" departLane="0" arrival="667.00">
        <route edges="201855692#0 201855692#4 201855692#6 201855692#7 201855692#8 201855692#9 201855692#10 201855692#11 201855692#12 201855692#13 201855692#15 201855692#16 201855692#17 201855692#18 201855692#19 201855692#20 201855692#22 201855692#23 201855692#24 201855692#25 201855692#26 201855692#27 201855692#30 201855692#31 201855692#34 201855692#35 201855692#37 201855692#38 201855692#39 201855692#42 201855692#43 201855692#44 201855692#45 834074204#0 834074204#1 834074204#2 834074204#3 834074166#1 201855686#0 201855686#1 201855686#2 834074200"/>
        <stop busStop="256525877" duration="30.00"/>
        <stop busStop="845372006" duration="30.00"/>
        <stop busStop="268127431" duration="30.00"/>
        <stop busStop="845372098" duration="30.00"/>
        <stop busStop="845911032" duration="30.00"/>
        <stop busStop="268121066" duration="30.00"/>
        <stop busStop="268119984" duration="30.00"/>
        <stop busStop="268134107" duration="30.00"/>
    </vehicle>

    <vehicle id="44_bus_SV:0" type="pt_bus" depart="239.00" departLane="0" arrival="680.00">
        <route edges="-109492803#1 -109492803#0 -132521447#3 -132521447#2 -132521447#1 -132521447#0 -947732348#3 -947732348#2 -947732348#1 -947732351#4 -947732351#3 -947732351#1 -947732352#1 -947732352#0 -452789386#1 -452789386#0 -132521448#3 -132521448#1 11878252 452789359 452789372 452789385 130591272#0 188969433#1 452936688 452868884 452868883 236056988#0 107263469#1 107263469#2 107263469#3 279669731#1 279669731#2 186672434#1 186672434#2 186672434#3 98144349#0 98144349#1 6011099#1 6011099#2 6011099#3 132521459#1 98102303#0 98102303#1 98102303#2 72833951#1 72833951#2 72833951#3 72833951#7 72833951#8 978418116#1 978418116#2 978418116#3 98144266#2 98144266#3 98144266#4 126997189 1017233453#1 71694383#0 71694383#1 107263471 725779838#0 542345403#1 542345403#3 542345403#4 542345404#0 542345402#1 542345401#0"/>
        <stop busStop="6152778520" duration="30.00"/>
    </vehicle>

    <vehicle id="73_bus_78:0" type="pt_bus" depart="451.00" departLane="0" arrival="681.00">
        <route edges="502201044#2 502201041#1 -498401210#1 -6019500#18 -6019500#17 -6019500#15 -6019500#12 -6019500#11 -6019500#10 -6019500#9 -6019500#8 -6019500#7 -6019500#6 -6019500#5 -6019500#4 -6019500#3 -6019500#2 -6019500#1 -6019500#0 127009732#1"/>
        <stop busStop="4927577794" duration="30.00"/>
    </vehicle>

    <vehicle id="3_bus_105:0" type="pt_bus" depart="17.00" departLane="0" arrival="706.00">
        <route edges="98102326#2 -192463128#3 -192463128#1 -543589119#0 -6017038#1 192463120#1 192463120#2 543590684#0 231639988#1 424998872 502985287#1 195248693 198167875#0 198167875#1 198167875#2 98289664#1 6023074#1 98214830#1 98214830#2 98214830#3 424998845#0 195773995#1 546911819 98166085 -98106788#1 -98289551#1 -1123665828#0 -192463113#1 -423861664#0 -543578050 -73532173#1 -107445216#0 -424997824#1 107445199#1 107445199#2 963682535#0 963682535#1 1051442243#1 1051442243#2 1051442243#3 1051442244#0 522355078#1 1051442248#0 195248660#1 195248660#2 195248660#3 870310870#0 870310869#1 870310869#4 870310869#5 870310869#6 870310867#0 -98289531#7 -98289531#5 -98289531#4 -98289531#3 -98289531#2 -98289531#1 -500546851#1 -853631436#0 -853631437 -1071907318#1 -1071907319#1 -1071907319#0 -98289449#7 -98289449#6 -98289449#5 -98289449#3 -98289449#2 -98289449#1 -948324219#12 -948324219#11 -948324219#8 -948324219#6 -948324219#5 -948324219#2 -948324219#1 -548218076#2 -548218076#1 -71706984#2 -71706984#1 -548218075#1 192574244#1 192574244#2 948324224#0 948324224#1 948324224#2 948324224#3 948324224#6"/>
        <stop busStop="4933408059" duration="30.00"/>
    </vehicle>

    <vehicle id="7_bus_411:0" type="pt_bus" depart="47.00" departLane="0" arrival="743.00">
        <route edges="24761985 24774246 122189400 6021064 452936694 6021698 452936673 424998874#1 424998873#0 107263469#1 107263469#2 107263469#3 279669731#1 279669731#2 186672434#1 186672434#2 186672434#3 98144349#0 98144349#1 6011099#1 6011099#2 6011099#3 132521459#1 98102303#0 98102303#1 98102303#2 72833951#1 72833951#2 72833951#3 72833951#7 72833951#8 978418116#1 978418116#2 978418116#3 6010027#1 6010027#2 132521360#1 132521360#3 1014407069#0 1014407069#1 98289479#1 132521361#0 132521361#1 6010130#1 6010130#2 6010130#3 6010130#4 455430124#1 951790252#0 951790252#1 951790252#2 69489477#1 69489477#4 69489477#5 1047862334#0 1047862334#2 192463123#0 192463123#1 192463123#2 192463123#3 192463123#5 951790253#1 948338685#1 948338685#2 72656675#0 72656675#2 72656675#5 72656675#6 72656675#7 72656675#8 72656675#9 72656675#10 72656675#11 72656675#12 72656675#13 188783419#0 188783419#1 188783419#2 188783419#3 951798108#0 951798108#1 521782236#0 521782236#1"/>
        <stop busStop="6152778520" duration="30.00"/>
    </vehicle>

    <vehicle id="14_bus_RD:1" type="pt_bus" depart="93.00" departLane="2" arrival="744.00">
        <route edges="192254092 192254091#0 192254091#1 188783437#0 195640798#1 192463120#1 192463120#2 543590684#0 231639988#1 424998872 502985287#1 195248693 198167875#0 198167875#1 198167875#2 98289664#1 6023074#1 98214830#1 98214830#2 98214830#3 424998845#0 11961377#1 424998862#1 98289459#1 424998863#0 98289502#1 935727039#0 935727039#3 935727039#4 98289556#0 543718719#0 543718719#1 1014407069#0 1014407069#1 98289479#1 132521361#0 132521361#1 69489480#0 69489480#1 69489480#5 69489469#1 24709907#1 24709949#3 24709949#5 24709949#6 24709949#9 24709949#10 24709949#11 24709949#12 111081881#7 111081881#8"/>
        <stop busStop="6125854158" duration="30.00"/>
    </vehicle>

    <vehicle id="17_bus_BR:0" type="pt_bus" depart="119.00" departLane="0" arrival="768.00">
        <route edges="75923294#0 75923296#1 75923296#2 75923296#3 188783428#1 188783428#2 476164286#1 476164274#0 476164274#1 476164272 476164276#0 476164276#1 548417297#0 548417297#1 548417297#2 72832602#0 72832602#1 72832602#4 72832602#5 98166094#1 98166094#2 548417298#1 548224243#0 548224243#1 548224243#3 548224243#4 548224243#5 548224242#0 84601475#1 84601475#3 84601475#4 84601475#5 84601475#6 84601475#7 948479204#0 606423274#1 606423274#2 606423275#1 606423275#2 1131175021#1 725260572#0 114769282#2 773636599#1 773636596#1 773636596#2 547107707#1 436184202#2 436184202#3 436184225#1 436184225#2 436184225#3 436184225#4 10426246 216240441 83114193 188783417#0 188783417#1 188783417#2 188783417#3 866915993#0 543571693#0 543571693#1 543571693#2 1122234807 424998852#1 424998852#2 546911820#1 500547923 98144288#1 98144288#2 98144288#3 98144288#4 130599629#1 72833939#1 72833939#2 547727933#1 424998878#0 424998877 425002435#3 425002435#5 198924900#1 425002434#0 98110668#1 98040542#1 6013800#2 98040494#0 202623988#7 202623988#8 202623988#9 202623988#10 202623988#11"/>
        <stop busStop="1285206581" duration="30.00"/>
    </vehicle>

    <vehicle id="6_light_rail_LR:2" type="pt_light_rail" depart="66.00" departLane="0" arrival="776.00">
        <route edges="201855692#0 201855692#4 201855692#6 201855692#7 201855692#8 201855692#9 201855692#10 201855692#11 201855692#12 201855692#13 201855692#15 201855692#16 201855692#17 201855692#18 201855692#19 201855692#20 201855692#22 201855692#23 201855692#24 201855692#25 201855692#26 201855692#27 201855692#30 201855692#31 201855692#34 201855692#35 201855692#37 201855692#38 201855692#39 201855692#42 201855692#43 201855692#44 201855692#45 834074204#0 834074204#1 834074204#2 834074204#3 834074166#1 201855686#0 201855686#1 201855686#2 834074200"/>
        <stop busStop="256525877" duration="30.00"/>
        <stop busStop="845372006" duration="30.00"/>
        <stop busStop="268127431" duration="30.00"/>
        <stop busStop="845372098" duration="30.00"/>
        <stop busStop="845911032" duration="30.00"/>
        <stop busStop="268121066" duration="30.00"/>
        <stop busStop="268119984" duration="30.00"/>
        <stop busStop="268134107" duration="30.00"/>
    </vehicle>

    <vehicle id="16_bus_RD:3" type="pt_bus" depart="102.00" departLane="2" arrival="782.00">
        <route edges="192254092 192254091#0 192254091#1 188783437#0 195640798#1 192463120#1 192463120#2 543590684#0 231639988#1 424998872 502985287#1 195248693 198167875#0 198167875#1 198167875#2 98289664#1 6023074#1 98214830#1 98214830#2 98214830#3 424998845#0 11961377#1 424998862#1 98289459#1 424998863#0 98289502#1 935727039#0 935727039#3 935727039#4 98289556#0 543718719#0 543718719#1 1014407069#0 1014407069#1 98289479#1 132521361#0 132521361#1 69489480#0 69489480#1 69489480#5 69489469#1 24709907#1 24709949#3 24709949#5 24709949#6 24709949#9 24709949#10 24709949#11 24709949#12 111081881#7 111081881#8"/>
        <stop busStop="6125854158" duration="30.00"/>
    </vehicle>

    <vehicle id="8_bus_410:0" type="pt_bus" depart="52.00" departLane="0" arrival="790.00">
        <route edges="24761985 24774246 122189400 6021064 452936694 6021698 452936673 424998874#1 424998873#0 107263469#1 107263469#2 107263469#3 279669731#1 279669731#2 186672434#1 186672434#2 186672434#3 98144349#0 98144349#1 6011099#1 6011099#2 6011099#3 132521459#1 98102303#0 98102303#1 98102303#2 72833951#1 72833951#2 72833951#3 72833951#7 72833951#8 978418116#1 978418116#2 978418116#3 98144266#2 98144266#3 98144266#4 126997189 1017233453#1 71694383#0 71694383#1 107263471 725779838#0 542345403#1 542345403#3 542345403#4 542345404#0 -949167929#1 -949167929#0 -6013504#3 -6013504#2 1136478765#3 1136478765#4 1136478765#5 1136478765#6 1136478765#8 1136478765#9 1136478765#10 195640811#8 548173602#0 548173606#1 548173606#2 548173606#3 198924903#1 198924903#2 547763500#0 192463127#0 192463127#1 98144344#1 98144344#2 98144344#3 98144344#4 98144344#5 949167925 72832516#0 72832516#2 500544634 537057409#0 537057409#1 547763501#0 542335285#1"/>
        <stop busStop="6152778520" duration="30.00"/>
        <stop busStop="6133918983" duration="30.00"/>
    </vehicle>

    <vehicle id="45_bus_SV:1" type="pt_bus" depart="253.00" departLane="0" arrival="792.00">
        <route edges="-109492803#1 -109492803#0 -132521447#3 -132521447#2 -132521447#1 -132521447#0 -947732348#3 -947732348#2 -947732348#1 -947732351#4 -947732351#3 -947732351#1 -947732352#1 -947732352#0 -452789386#1 -452789386#0 -132521448#3 -132521448#1 11878252 452789359 452789372 452789385 130591272#0 188969433#1 452936688 452868884 452868883 236056988#0 107263469#1 107263469#2 107263469#3 279669731#1 279669731#2 186672434#1 186672434#2 186672434#3 98144349#0 98144349#1 6011099#1 6011099#2 6011099#3 132521459#1 98102303#0 98102303#1 98102303#2 72833951#1 72833951#2 72833951#3 72833951#7 72833951#8 978418116#1 978418116#2 978418116#3 98144266#2 98144266#3 98144266#4 126997189 1017233453#1 71694383#0 71694383#1 107263471 725779838#0 542345403#1 542345403#3 542345403#4 542345404#0 542345402#1 542345401#0"/>
        <stop busStop="6152778520" duration="30.00"/>
    </vehicle>

    <vehicle id="9_bus_420:0" type="pt_bus" depart="58.00" departLane="0" arrival="814.00">
        <route edges="24761985 24774246 122189400 6021064 452936694 6021698 452936673 424998874#1 424998873#0 107263469#1 107263469#2 107263469#3 279669731#1 279669731#2 186672434#1 186672434#2 186672434#3 98144349#0 98144349#1 6011099#1 6011099#2 6011099#3 132521459#1 98102303#0 98102303#1 98102303#2 72833951#1 72833951#2 72833951#3 72833951#7 72833951#8 978418116#1 978418116#2 978418116#3 6010027#1 6010027#2 132521360#1 132521360#3 1014407069#0 1014407069#1 98289479#1 132521361#0 132521361#1 6010130#1 6010130#2 6010130#3 6010130#4 455430124#1 951790252#0 951790252#1 951790252#2 69489477#1 69489477#4 69489477#5 1047862334#0 1047862334#2 192463123#0 192463123#1 192463123#2 192463123#3 192463123#5 951790253#1 948338685#1 948338685#2 72656675#0 72656675#2 72656675#5 72656675#6 72656675#7 72656675#8 72656675#9 72656675#10 72656675#11 72656675#12 72656675#13 188783419#0 188783419#1 188783419#2 188783419#3 951798108#0 951798108#1 521782236#0 521782236#1"/>
        <stop busStop="6152778520" duration="30.00"/>
    </vehicle>

    <vehicle id="68_bus_75:1" type="pt_bus" depart="406.00" departLane="0" arrival="814.00">
        <route edges="192254092 192254091#0 192254091#1 6023507#0 6023507#1 6023507#2 425002422#0 98040495#1 98040495#2 98040495#3 98040495#4 188783434#1 188783434#2 98040600#0 11201451#0 11201451#1 11201451#2 11201451#3 1083996776 455272878#0 1164453170 11570423 77327643 305419555 870821352#0 870821352#1 870821352#2 870821352#3 1023310495 198870323 501480216 1122482606#0 1122482606#1 1122482606#2 1122482607 6004798"/>
        <stop busStop="2028132781" duration="30.00"/>
    </vehicle>

    <vehicle id="20_bus_BR:3" type="pt_bus" depart="131.00" departLane="0" arrival="817.00">
        <route edges="75923294#0 75923296#1 75923296#2 75923296#3 188783428#1 188783428#2 476164286#1 476164274#0 476164274#1 476164272 476164276#0 476164276#1 548417297#0 548417297#1 548417297#2 72832602#0 72832602#1 72832602#4 72832602#5 98166094#1 98166094#2 548417298#1 548224243#0 548224243#1 548224243#3 548224243#4 548224243#5 548224242#0 84601475#1 84601475#3 84601475#4 84601475#5 84601475#6 84601475#7 948479204#0 606423274#1 606423274#2 606423275#1 606423275#2 1131175021#1 725260572#0 114769282#2 773636599#1 773636596#1 773636596#2 547107707#1 436184202#2 436184202#3 436184225#1 436184225#2 436184225#3 436184225#4 10426246 216240441 83114193 188783417#0 188783417#1 188783417#2 188783417#3 866915993#0 543571693#0 543571693#1 543571693#2 1122234807 424998852#1 424998852#2 546911820#1 500547923 98144288#1 98144288#2 98144288#3 98144288#4 130599629#1 72833939#1 72833939#2 547727933#1 424998878#0 424998877 425002435#3 425002435#5 198924900#1 425002434#0 98110668#1 98040542#1 6013800#2 98040494#0 202623988#7 202623988#8 202623988#9 202623988#10 202623988#11"/>
        <stop busStop="1285206581" duration="30.00"/>
    </vehicle>

    <vehicle id="70_bus_75:3" type="pt_bus" depart="440.00" departLane="0" arrival="817.00">
        <route edges="192254092 192254091#0 192254091#1 6023507#0 6023507#1 6023507#2 425002422#0 98040495#1 98040495#2 98040495#3 98040495#4 188783434#1 188783434#2 98040600#0 11201451#0 11201451#1 11201451#2 11201451#3 1083996776 455272878#0 1164453170 11570423 77327643 305419555 870821352#0 870821352#1 870821352#2 870821352#3 1023310495 198870323 501480216 1122482606#0 1122482606#1 1122482606#2 1122482607 6004798"/>
        <stop busStop="2028132781" duration="30.00"/>
    </vehicle>

    <vehicle id="38_bus_YW:0" type="pt_bus" depart="204.00" departLane="0" arrival="832.00">
        <route edges="547763504 547763502#0 547763502#1 279676298#0 279676296#1 195059446#1 72832512#0 72832512#2 195059449#0 195059449#3 11201445#1 541983767#0 47990444#1 1065747445#0 1065747445#1 975993208#0 1046171028#1 92170322#0 49655315#1 943794895#0 220758043#1 541980629 973928774#0 973928774#1 541980630#0 541980630#1 541980630#2 541980630#3 192254087#0 192254087#1 943790763#0 425002427#1 6008443#1 425002429#0 425002429#1 425002429#2 541977540#0 335286765#0 335286765#1 207525387#1 545109659#1 545109659#2 545109659#3 545109659#4 545109659#5 545109659#6 545109659#8 545109659#9 70497530#0 70497530#1 451772882 521971909#0 521971909#1 451778395#0 451778395#1 451778395#2 425194775#0 425194775#1 425194775#2 425194775#3 425194775#4 425194773#0 425194773#1 425194773#2 425194774#1 425194774#2 525070223#1 95911555#0 95911555#1 95911555#2 988207131#0 988207131#1 988207131#2 988207131#3 988207131#4 988207131#5 988207131#6 988207131#7 952023922 71038091"/>
        <stop busStop="2055577697" duration="30.00"/>
    </vehicle>

    <vehicle id="51_bus_56:0" type="pt_bus" depart="326.00" departLane="2" arrival="832.00">
        <route edges="72832591#0 72832591#4 72832591#6 -192574249#3 -192574249#2 -192574249#1 -192574244#2 -192574244#1 548218075#1 71706984#1 71706984#2 548218076#1 548218076#2 948324219#1 948324219#2 948324219#5 948324219#6 948324219#8 948324219#11 948324219#12 98289449#1 98289449#2 98289449#3 98289449#5 98289449#6 98289449#7 1071907319#0 1071907319#1 1071907318#1 853631437 853631436#0 500546851#1 98289531#1 98289531#2 98289531#3 98289531#4 98289531#5 98289531#6 49664166#2 49664166#5 49664166#7 49664166#8 987644717#0 98289603#1 962616109#0 195248658#1 195248658#5 195248658#6 522355075#1 522355075#2 424997825 424997826#0 424997824#1 107445216#0 73532173#1 73532173#2 423861664#0 192463113#1 192463113#2 98289551#1 98106800#1 98289543#1 98289543#2 204141565#0 543578051#0 543578051#1 500298765#1 107438752#1 107438752#2"/>
        <stop busStop="2061844596" duration="30.00"/>
    </vehicle>

    <vehicle id="58_bus_67:1" type="pt_bus" depart="362.00" departLane="0" arrival="860.00">
        <route edges="-109492803#1 -109492803#0 -132521447#3 -132521447#2 -132521447#1 -132521447#0 -947732348#3 -947732348#2 -947732348#1 -947732351#4 -947732351#3 -947732351#1 -947732352#1 -947732352#0 -452789386#1 -452789386#0 -132521448#3 -132521448#1 11878252 452789359 452789372 452789385 130591272#0 188969433#1 452936688 452868884 452868883 236056988#0 107263469#1 107263469#2 107263469#3 6008581#1 192572987#1 22775635#1 22775635#2 98144196#1 98144196#2 98144196#3 98144196#4 98144335#1 195773995#1 546911819 98166085 98214823#1 546911818#1 69530870#1 69530870#2 98289624#1 98289538 1077650137#1 -201637236#0"/>
        <stop busStop="1990938847" duration="30.00"/>
    </vehicle>

    <vehicle id="31_bus_LM:1" type="pt_bus" depart="160.00" departLane="0" arrival="868.00">