<?xml version="1.0" encoding="UTF-8"?>

<!-- generated on 2024-01-28 12:50:11 by Eclipse SUMO sumo Version 1.19.0
<configuration xmlns:xsi="http://www.w3.org/2001/XMLSchema-instance" xsi:noNamespaceSchemaLocation="http://sumo.dlr.de/xsd/sumoConfiguration.xsd">

    <input>
        <net-file value="/usr/share/sumo/tools/2024-01-28-12-50-06/osm.net.xml.gz"/>
        <route-files value="/usr/share/sumo/tools/2024-01-28-12-50-06/trips.trips.xml"/>
        <additional-files value="/usr/share/sumo/tools/2024-01-28-12-50-06/osm_stops.add.xml"/>
    </input>

    <output>
        <vehroute-output value="/usr/share/sumo/tools/2024-01-28-12-50-06/vehroutes.xml"/>
        <stop-output value="/usr/share/sumo/tools/2024-01-28-12-50-06/stopinfos.xml"/>
    </output>

    <time>
        <begin value="0.0"/>
    </time>

    <processing>
        <ignore-route-errors value="true"/>
    </processing>

    <routing>
        <device.rerouting.adaptation-interval value="0"/>
    </routing>

    <report>
        <aggregate-warnings value="5"/>
        <error-log value="/usr/share/sumo/tools/2024-01-28-12-50-06/trips.trips.xml.errorlog"/>
        <no-step-log value="true"/>
    </report>

</configuration>
-->

<routes xmlns:xsi="http://www.w3.org/2001/XMLSchema-instance" xsi:noNamespaceSchemaLocation="http://sumo.dlr.de/xsd/routes_file.xsd">
    <vehicle id="0_bus_NV:0" type="pt_bus" depart="15.00" departLane="0" arrival="314.00">
        <route edges="138388359#0 138388359#2 138388359#4 138388359#5 138388359#7 138388359#8 138388359#9 138388359#11 138388359#12 138388359#13 138388359#15 138388359#16 829470071#1 829470071#2 829470071#5 829470071#6 948331274#1 948331274#2 948331274#5 948331274#6 948331274#8 948331274#9 390061613#1 390061613#3 390061613#4 390061613#5 390061613#8 390061613#9 1087560658 197879536#1 197879536#2 197879536#3 275806336 243591150#0 243591150#1 192469470#0 192469470#1 192469470#2"/>
        <stop busStop="6117399256" duration="30.00"/>
    </vehicle>

    <vehicle id="2_bus_NV:2" type="pt_bus" depart="165.00" departLane="0" arrival="429.00">
        <route edges="-192469470#2 -192469470#1 -192469470#0 -243591150#1 -243591150#0 -275806336 -197879536#3 -197879536#2 -197879536#1 -197879536#0 -390061613#9 -390061613#8 -390061613#5 -390061613#4 -390061613#3 -390061613#1 -948331274#9 -948331274#8 -948331274#6 -948331274#5 -948331274#2 -948331274#1 -829470071#6 -829470071#5 -829470071#2 -829470071#1 -138388359#16 -138388359#15 -138388359#13 -138388359#12 -138388359#11 -138388359#9 -138388359#8 -138388359#7 -138388359#5 -138388359#4 -138388359#2 -138388359#1"/>
        <stop busStop="-6117388035" duration="30.00"/>
    </vehicle>

    <vehicle id="1_bus_NV:1" type="pt_bus" depart="133.00" departLane="0" arrival="441.00">
        <route edges="138388359#0 138388359#2 138388359#4 138388359#5 138388359#7 138388359#8 138388359#9 138388359#11 138388359#12 138388359#13 138388359#15 138388359#16 829470071#1 829470071#2 829470071#5 829470071#6 948331274#1 948331274#2 948331274#5 948331274#6 948331274#8 948331274#9 390061613#1 390061613#3 390061613#4 390061613#5 390061613#8 390061613#9 1087560658 197879536#1 197879536#2 197879536#3 275806336 243591150#0 243591150#1 192469470#0 192469470#1 192469470#2"/>
        <stop busStop="6117378696" duration="30.00"/>
    </vehicle>

    <vehicle id="3_bus_65:0" type="pt_bus" depart="383.00" departLane="0" arrival="594.00">
        <route edges="86092338#0 86092338#1 86092338#2 86092338#3 86092338#6 86092338#9 86092338#12 86092338#13 791811230#4 791811230#6 791811230#7 244330238#1 244330238#3 244330238#4 244330238#5 192469469#1 192469469#2 192469469#3 192469464#1 192469464#2 192469464#4 192469464#5 1064816172#0 1064816172#1 1064816172#2 1064816172#3 244330237#0 244330237#1 244330237#2 244330237#3 244330237#4 244330237#5 570709857 244330235 244330236#2 192469470#0 192469470#1 192469470#2"/>
        <stop busStop="2516605830" duration="30.00"/>
    </vehicle>

    <vehicle id="4_bus_65:1" type="pt_bus" depart="406.00" departLane="0" arrival="619.00">
        <route edges="-192469470#2 -192469470#1 -192469470#0 -244330236#2 -244330236#0 -570709857 -244330237#5 -244330237#4 -244330237#3 -244330237#2 -244330237#1 -244330237#0 -1064816172#3 -1064816172#2 -1064816172#1 -1064816172#0 -192469464#5 -192469464#4 -192469464#2 -192469464#1 -192469469#3 -192469469#2 -192469469#1 192469477#1 192469477#2 -86092338#17 -86092338#16 -86092338#15 -86092338#14 -86092338#13 -86092338#12 -86092338#9 -86092338#6 -86092338#3 -86092338#2 -86092338#1 -86092338#0"/>
        <stop busStop="-4501242775" duration="30.00"/>
    </vehicle>

    <vehicle id="5_bus_63:0" type="pt_bus" depart="441.00" departLane="0" arrival="696.00">
        <route edges="138388359#0 138388359#2 138388359#4 138388359#5 138388359#7 138388359#8 138388359#9 138388359#11 138388359#12 138388359#13 138388359#15 138388359#16 829470071#1 829470071#2 829470071#5 829470071#6 948331274#1 948331274#2 948331274#5 948331274#6 948331274#8 948331274#9 390061613#1 390061613#3 390061613#4 390061613#5 390061613#8 390061613#9"/>
        <stop busStop="6117399256" duration="30.00"/>
    </vehicle>

    <vehicle id="6_bus_63:1" type="pt_bus" depart="535.00" departLane="0" arrival="783.00">
        <route edges="-390061613#9 -390061613#8 -390061613#5 -390061613#4 -390061613#3 -390061613#1 -948331274#9 -948331274#8 -948331274#6 -948331274#5 -948331274#2 -948331274#1 -829470071#6 -829470071#5 -829470071#2 -829470071#1 -138388359#16 -138388359#15 -138388359#13 -138388359#12 -138388359#11 -138388359#9 -138388359#8 -138388359#7 -138388359#5 -138388359#4 -138388359#2 -138388359#1"/>
        <stop busStop="-6117388035" duration="30.00"/>
    </vehicle>

</routes>
